% Model:              Анатомическая модель_RPG4.mph
% Version:            COMSOL 6.2.0.339
% Date:               Mar 11 2025, 13:48
% Table:              Table 1 - Point Evaluation 1
% ro_skin (Ω*m)          ro_scull (Ω*m)           ro_brain (Ω*m)           Electric potential (V), Point: 1
1                        40                       1                        9.485315057910707
1.5                      40                       1                        9.699596838643245
2                        40                       1                        9.481578319834398
2.5                      40                       1                        9.148972460912525
3                        40                       1                        8.808756747978741
3.5                      40                       1                        8.496193659656619
4                        40                       1                        8.220893178417654
4.5                      40                       1                        7.9836580466026135
5                        40                       1                        7.779865144984441
1                        45                       1                        10.126296092201407
1.5                      45                       1                        10.458197514141538
2                        45                       1                        10.265929271746948
2.5                      45                       1                        9.91299587295407
3                        45                       1                        9.53044152179033
3.5                      45                       1                        9.167074847036076
4                        45                       1                        8.839434182068246
4.5                      45                       1                        8.55010663541843
5                        45                       1                        8.29774948712111
1                        50                       1                        10.743513713219805
1.5                      50                       1                        11.21188511998497
2                        50                       1                        11.064202801625527
2.5                      50                       1                        10.705748451265542
3                        50                       1                        10.292189780600296
3.5                      50                       1                        9.885312766074335
4                        50                       1                        9.509280471711804
4.5                      50                       1                        9.171124260907916
5                        50                       1                        8.870110865336997
1                        55                       1                        11.33558772842374
1.5                      55                       1                        11.954589164441188
2                        55                       1                        11.867622091032061
2.5                      55                       1                        11.51807021679403
3                        55                       1                        11.084515935196748
3.5                      55                       1                        10.642576818653055
4                        55                       1                        10.223971904931801
4.5                      55                       1                        9.840476422578988
5                        55                       1                        9.495742261227207
1                        60                       1                        11.901377839229824
1.5                      60                       1                        12.68301792706091
2                        60                       1                        12.670698500012826
2.5                      60                       1                        12.34267944403792
3                        60                       1                        11.900087371041792
3.5                      60                       1                        11.431101754439752
4                        60                       1                        10.975988021509721
4.5                      60                       1                        10.551354779478004
5                        60                       1                        10.16414953174555
1                        65                       1                        12.44228497377027
1.5                      65                       1                        13.393858372849877
2                        65                       1                        13.46862535940545
2.5                      65                       1                        13.174614326851646
3                        65                       1                        12.732331225278188
3.5                      65                       1                        12.244363853778992
4                        65                       1                        11.759047906063287
4.5                      65                       1                        11.297976444644235
5                        65                       1                        10.871327430095647
1                        70                       1                        12.958016256406722
1.5                      70                       1                        14.08600396780303
2                        70                       1                        14.258694572006775
2.5                      70                       1                        14.007873981659131
3                        70                       1                        13.57574955215712
3.5                      70                       1                        13.076789518969022
4                        70                       1                        12.5674628496933
4.5                      70                       1                        12.075568257931678
5                        70                       1                        11.613085610717931
1                        75                       1                        13.450333723696396
1.5                      75                       1                        14.75886096412053
2                        75                       1                        15.03655536415232
2.5                      75                       1                        14.83931608608998
3                        75                       1                        14.426395731011539
3.5                      75                       1                        13.924001268672725
4                        75                       1                        13.396649217485205
4.5                      75                       1                        12.87810775196266
5                        75                       1                        12.384258168455105
1                        80                       1                        13.919658681139019
1.5                      80                       1                        15.41152812293074
2                        80                       1                        15.801764250900177
2.5                      80                       1                        15.666511138484381
3                        80                       1                        15.279898760532305
3.5                      80                       1                        14.781052609688345
4                        80                       1                        14.242176157149615
4.5                      80                       1                        13.702118989021088
5                        80                       1                        13.180948610180238
1                        85                       1                        14.367590837290237
1.5                      85                       1                        16.043924984627168
2                        85                       1                        16.5526946344213
2.5                      85                       1                        16.48734169317416
3                        85                       1                        16.13398338995789
3.5                      85                       1                        15.645493267051862
4                        85                       1                        15.100322722766848
4.5                      85                       1                        14.544125630052406
5                        85                       1                        13.998904623482403
1                        90                       1                        14.794776579213426
1.5                      90                       1                        16.656429602910265
2                        90                       1                        17.287898720492088
2.5                      90                       1                        17.296875126182115
3                        90                       1                        16.98511638924535
3.5                      90                       1                        16.51347784977476
4                        90                       1                        15.968652020097139
4.5                      90                       1                        15.400067154664157
5                        90                       1                        14.836120241552564
1                        95                       1                        15.20225515877462
1.5                      95                       1                        17.24912284433755
2                        95                       1                        18.007941345467266
2.5                      95                       1                        18.097082479524204
3                        95                       1                        17.832491756496964
3.5                      95                       1                        17.383558688842953
4                        95                       1                        16.842879922374294
4.5                      95                       1                        16.267766380146156
5                        95                       1                        15.687777010406293
1                        100                      1                        15.591886114004119
1.5                      100                      1                        17.82264532037081
2                        100                      1                        18.711588770325847
2.5                      100                      1                        18.887164800405813
3                        100                      1                        18.674883284291056
3.5                      100                      1                        18.25134064909895
4                        100                      1                        17.72114882254786
4.5                      100                      1                        17.143332866653765
5                        100                      1                        16.551682833762598
1                        105                      1                        15.964343408568432
1.5                      105                      1                        18.376848281386167
2                        105                      1                        19.39811135929932
2.5                      105                      1                        19.66311721662821
3                        105                      1                        19.507721551095912
3.5                      105                      1                        19.118192877500178
4                        105                      1                        18.601655207420393
4.5                      105                      1                        18.026253661339766
5                        105                      1                        17.427261441595178
1                        110                      1                        16.32041519753625
1.5                      110                      1                        18.913770739021068
2                        110                      1                        20.06889535692511
2.5                      110                      1                        20.426655396305406
3                        110                      1                        20.33228382748794
3.5                      110                      1                        19.97989701109394
4                        110                      1                        19.484369524556385
4.5                      110                      1                        18.913144642621404
5                        110                      1                        18.309750311064363
1                        115                      1                        16.661775246780934
1.5                      115                      1                        19.43244623081818
2                        115                      1                        20.722707047697867
2.5                      115                      1                        21.17735826297927
3                        115                      1                        21.147863381404363
3.5                      115                      1                        20.837582680139462
4                        115                      1                        20.36319146902403
4.5                      115                      1                        19.80322878748025
5                        115                      1                        19.19979503514172
1                        120                      1                        16.98792619653632
1.5                      120                      1                        19.93463893688476
2                        120                      1                        21.36008456876654
2.5                      120                      1                        21.913369166133435
3                        120                      1                        21.952786273880207
3.5                      120                      1                        21.68660965951061
4                        120                      1                        21.240898870681605
4.5                      120                      1                        20.69321548850357
5                        120                      1                        20.09224506848942
1                        125                      1                        17.300561123509183
1.5                      125                      1                        20.42028107526385
2                        125                      1                        21.982489514149307
2.5                      125                      1                        22.63609736558992
3                        125                      1                        22.74793992637038
3.5                      125                      1                        22.530272903311584
4                        125                      1                        22.11600313756651
4.5                      125                      1                        21.58385588749283
5                        125                      1                        20.988560060564566
1                        130                      1                        17.6010557009825
1.5                      130                      1                        20.890263643694077
2                        130                      1                        22.58800946408404
2.5                      130                      1                        23.344910196096208
3                        130                      1                        23.530885729035774
3.5                      130                      1                        23.365123560574688
4                        130                      1                        22.98404235735819
4.5                      130                      1                        22.472189708579975
5                        130                      1                        21.88532088769061
1                        135                      1                        17.889000497927313
1.5                      135                      1                        21.34545996649495
2                        135                      1                        23.178340562800102
2.5                      135                      1                        24.03971254795593
3                        135                      1                        24.302456825089394
3.5                      135                      1                        24.191718470252326
4                        135                      1                        23.84810099315237
4.5                      135                      1                        23.359696871144024
5                        135                      1                        22.786357012838124
1                        140                      1                        18.165588667623034
1.5                      140                      1                        21.78514330787428
2                        140                      1                        23.754110655050695
2.5                      140                      1                        24.720494011297546
3                        140                      1                        25.062573130885454
3.5                      140                      1                        25.009045686144475
4                        140                      1                        24.70397938343021
4.5                      140                      1                        24.24067619473361
5                        140                      1                        23.68355933491347
1                        145                      1                        18.430921973339117
1.5                      145                      1                        22.211834478229335
2                        145                      1                        24.31505860262692
2.5                      145                      1                        25.387843966372415
3                        145                      1                        25.811690003801843
3.5                      145                      1                        25.816766871042574
4                        145                      1                        25.554424544383863
4.5                      145                      1                        25.122486249849985
5                        145                      1                        24.57883819792528
1                        150                      1                        18.68697408469321
1.5                      150                      1                        22.624850641424565
2                        150                      1                        24.861816971474028
2.5                      150                      1                        26.041316715185857
3                        150                      1                        26.54531252873724
3.5                      150                      1                        26.61436362885388
4                        150                      1                        26.39570668539372
4.5                      150                      1                        25.994042173078228
5                        150                      1                        25.473044897226117
1                        155                      1                        18.933201290057852
1.5                      155                      1                        23.026005221088234
2                        155                      1                        25.394659047596406
2.5                      155                      1                        26.68138760900338
3                        155                      1                        27.27053151323325
3.5                      155                      1                        27.402318800151733
4                        155                      1                        27.231314926783853
4.5                      155                      1                        26.861977857428556
5                        155                      1                        26.360653757095236
1                        160                      1                        19.169983223415066
1.5                      160                      1                        23.413038511758735
2                        160                      1                        25.914338633411447
2.5                      160                      1                        27.309468754289014
3                        160                      1                        27.983291183976277
3.5                      160                      1                        28.179102527017136
4                        160                      1                        28.058437550133974
4.5                      160                      1                        27.723615873612488
5                        160                      1                        27.24772780302169
1                        165                      1                        19.397791516124208
1.5                      165                      1                        23.79033383844164
2                        165                      1                        26.421365759295483
2.5                      165                      1                        27.923516939843694
3                        165                      1                        28.682379377816602
3.5                      165                      1                        28.946522713244605
4                        165                      1                        28.875220717244787
4.5                      165                      1                        28.579405647189844
5                        165                      1                        28.13082373728591
1                        170                      1                        19.61803185803651
1.5                      170                      1                        24.1558403244511
2                        170                      1                        26.914437765016984
2.5                      170                      1                        28.52353681450215
3                        170                      1                        29.370558698576275
3.5                      170                      1                        29.702722269399047
4                        170                      1                        29.6850277575313
4.5                      170                      1                        29.42780286478714
5                        170                      1                        29.00757667804595
1                        175                      1                        19.830032313571344
1.5                      175                      1                        24.510681048893318
2                        175                      1                        27.396188267610967
2.5                      175                      1                        29.11247217943182
3                        175                      1                        30.047237314092953
3.5                      175                      1                        30.44662577084499
4                        175                      1                        30.483317518630344
4.5                      175                      1                        30.266740769919892
5                        175                      1                        29.878004973132704
1                        180                      1                        20.034980325538562
1.5                      180                      1                        24.854694023218592
2                        180                      1                        27.865663083647547
2.5                      180                      1                        29.68789674282509
3                        180                      1                        30.711518644277717
3.5                      180                      1                        31.183519321367427
4                        180                      1                        31.27591705624026
4.5                      180                      1                        31.10285487789352
5                        180                      1                        30.74531161495335
1                        185                      1                        20.232952035822223
1.5                      185                      1                        25.18838198743063
2                        185                      1                        28.3237387436386
2.5                      185                      1                        30.253667093767348
3                        185                      1                        31.364622148358308
3.5                      185                      1                        31.90845292960104
4                        185                      1                        32.05569959747979
4.5                      185                      1                        31.928065406818547
5                        185                      1                        31.60499855144758
1                        190                      1                        20.423912851893448
1.5                      190                      1                        25.512663091221967
2                        190                      1                        28.77140712970045
2.5                      190                      1                        30.80672361785514
3                        190                      1                        32.00557411117762
3.5                      190                      1                        32.622553899634426
4                        190                      1                        32.82691905990018
4.5                      190                      1                        32.745760612864075
5                        190                      1                        32.457983640184665
1                        195                      1                        20.608852629467535
1.5                      195                      1                        25.828484758937726
2                        195                      1                        29.20760324356192
2.5                      195                      1                        31.34822954474521
3                        195                      1                        32.6366632971321
3.5                      195                      1                        33.32571954209327
4                        195                      1                        33.592094916373114
4.5                      195                      1                        33.55639245743171
5                        195                      1                        33.3037636053447
1                        200                      1                        20.78780599092744
1.5                      200                      1                        26.135002359300536
2                        200                      1                        29.633304711600616
2.5                      200                      1                        31.880573931434057
3                        200                      1                        33.25699276898469
3.5                      200                      1                        34.01887950152252
4                        200                      1                        34.34739025165686
4.5                      200                      1                        34.35762544010822
5                        200                      1                        34.14749167159172
1                        205                      1                        20.96064340381585
1.5                      205                      1                        26.433200010623835
2                        205                      1                        30.04987235289869
2.5                      205                      1                        32.39963472883613
3                        205                      1                        33.863500656685275
3.5                      205                      1                        34.70114289325613
4                        205                      1                        35.089154771232685
4.5                      205                      1                        35.15067397093736
5                        205                      1                        34.974186973110164
1                        210                      1                        21.12906462180878
1.5                      210                      1                        26.724054665280946
2                        210                      1                        30.45537268374514
2.5                      210                      1                        32.90690773173121
3                        210                      1                        34.461309766767485
3.5                      210                      1                        35.37394572722587
4                        210                      1                        35.8232632378857
4.5                      210                      1                        35.935378358652514
5                        210                      1                        35.80188180410022
1                        215                      1                        21.290577880581388
1.5                      215                      1                        27.005305090431243