% Model:              Анатомическая модель_RPG3.mph
% Version:            COMSOL 6.2.0.339
% Date:               Mar 11 2025, 09:04
% Table:              Table 1 - Point Evaluation 1
% ro_brain (Ω*m)         ro_scull (Ω*m)           ro_skin (Ω*m)            Electric potential (V), Point: 1 Electric potential (V), Point: 1 Electric potential (V), Point: 1
1                        40                       1                        43.664267574205255               35.20711242873843                50.641821642001
1                        40                       1.5                      55.40632583098052                48.84555551325121                73.55988089942298
1                        40                       2                        63.95470534905438                60.73054814691297                95.21530453556397
1                        40                       2.5                      70.3454576682685                 71.21892838885783                115.7676056439391
1                        40                       3                        75.20230227866479                80.56375614739778                135.34203026237049
1                        40                       3.5                      78.93007110655358                88.9538525522342                 154.0378610665852
1                        40                       4                        81.80621085247543                96.53491415901162                171.9396803885573
1                        40                       4.5                      84.03074459512831                103.42230858225545               189.11588963995516
1                        40                       5                        85.742808521482                  109.70858651084407               205.627537651242
1                        45                       1                        45.28254026728348                35.82341334664865                51.012564266020206
1                        45                       1.5                      58.0453426666577                 49.991984719907904               74.30415971375936
1                        45                       2                        67.54975784741407                62.46680900714968                96.41571669872474
1                        45                       2.5                      74.80749527704                   73.57571326525968                117.49006061777584
1                        45                       3                        80.44192860902805                83.55473799295038                137.6346805670063
1                        45                       3.5                      84.86251829703485                92.57898122426606                156.94480191867325
1                        45                       4                        88.3512116239229                 100.78868911234909               175.4906333721737
1                        45                       4.5                      91.11504922615241                108.29362289341191               193.33879904214672
1                        45                       5                        93.30513133117668                115.18359842800143               210.54613659952997
1                        50                       1                        46.70493354597805                36.34557305979129                51.31915431323996
1                        50                       1.5                      60.39731829578325                50.971903189554325               74.92256991353173
1                        50                       2                        70.78820689860132                63.96209767575158                97.41843906852401
1                        50                       2.5                      78.86746634202919                75.61894810080796                118.93671750486132
1                        50                       3                        85.24692962980095                86.16176161693389                139.56799651479855
1                        50                       3.5                      90.33948256522166                95.75717148506192                159.40594533685243
1                        50                       4                        94.4332300610244                 104.53625692529897               178.5058064266821
1                        50                       4.5                      97.7405326853823                 112.60489387991893               196.93263355180352
1                        50                       5                        100.41266475640909               120.04899788663363               214.73390497607195
1                        55                       1                        47.966784717189256               36.794316642820434               51.57717059362571
1                        55                       1.5                      62.50879095064265                51.82056518925817                75.44648174327725
1                        55                       2                        73.72547258310729                65.2654508518634                 98.27038824441706
1                        55                       2.5                      82.57790289614388                77.41000021751225                120.16676573694501
1                        55                       3                        89.67037602293998                88.45934764260458                141.2199836501453
1                        55                       3.5                      95.4143539120606                 98.57058071583185                161.5122092551117
1                        55                       4                        100.10180239928503               107.8681431350638                181.09734693436496
1                        55                       4.5                      103.94453739435633               116.45282105178018               200.03299149048718
1                        55                       5                        107.10479851387203               124.4077330769649                218.367147738595
1                        60                       1                        49.094714900304595               37.18462190671109                51.797412474305176
1                        60                       1.5                      64.41778530857337                52.56369339214741                75.89537487664111
1                        60                       2                        76.4024762576108                 66.41319045986367                99.00437260259295
1                        60                       2.5                      85.98466389337804                78.99541598497422                121.23023942285488
1                        60                       3                        93.75925245843078                90.50173465533695                142.65404863497355
1                        60                       3.5                      100.13205184432766               101.08177363707705               163.3434315337462
1                        60                       4                        105.39594465268064               110.85268303774194               183.3558661804527
1                        60                       4.5                      109.76604155393869               119.91212799861222               202.7419575950616
1                        60                       5                        113.4098671421246                128.33894251687622               221.54127137510835
1                        65                       1                        50.11081646656118                37.527545070617414               51.987949050712
1                        65                       1.5                      66.15357247962238                53.2204569263222                 76.28470782515834
1                        65                       2                        78.85589538329728                67.43259158756831                99.64335405558467
1                        65                       2.5                      89.12744198539731                80.40918033651207                122.15742760380257
1                        65                       3                        97.54963314924656                92.33112592483482                143.90755986994625
1                        65                       3.5                      104.52961446620293               103.33906954075007               164.9481515351345
1                        65                       4                        110.35335226957046               113.54512240071993               185.33910494132996
1                        65                       4.5                      115.23974804873679               123.04170910237602               205.1214937281402
1                        65                       5                        119.36222876613914               131.90572637430597               224.34047547084225
1                        70                       1                        51.031042513919004               37.8314806554208                 52.15440101569553
1                        70                       1.5                      67.73955458430189                53.8057257424021                 76.62637892714586
1                        70                       2                        81.11454422611193                68.34518266566633                100.20476635367076
1                        70                       2.5                      92.035695476035                  81.68031751226295                122.97585718431083
1                        70                       3                        101.07705516780696               93.98080194235636                145.01255376676062
1                        70                       3.5                      108.6367043472224                105.38128613896976               166.37084609158393
1                        70                       4                        115.00684945481797               115.98806163586428               187.09816359375583
1                        70                       4.5                      120.40019928547903               125.88959374115743               207.24108276766822
1                        70                       5                        124.9860900248314                135.15965165318477               226.83360835659366
1                        75                       1                        51.86886586759216                38.10292251408609                52.30128297620914
1                        75                       1.5                      69.19631407496412                54.330930984128564               76.92844914078731
1                        75                       2                        83.19995475229294                69.16677534593475                100.70232667868623
1                        75                       2.5                      94.73749546361839                82.8288868859333                 123.70390804510039
1                        75                       3                        104.3705042955052                95.4772456873556                 145.99822850393568
1                        75                       3.5                      112.48704034590975               107.23909598357858               167.6404613190905
1                        75                       4                        119.38121218555935               118.21600265541726               188.67241020035047
1                        75                       4.5                      125.2704271674713                128.49375069279594               209.13517803262357
1                        75                       5                        130.3167060641763                138.14224365036972               229.06850780848276
1                        80                       1                        52.635580233788176               38.3469189719563                 52.43227696746405
1                        80                       1.5                      70.53918969882749                54.80521757967304                77.19735617146662
1                        80                       2                        85.13433437862392                69.91254825250132                101.1452884714812
1                        80                       2.5                      97.25510241402677                83.87356032634037                124.35543494367559
1                        80                       3                        107.45086174007973               96.84159448752166                146.88184264178938
1                        80                       3.5                      116.10553179364527               108.93736210751709               168.78002811806215
1                        80                       4                        123.50853875665388               120.25861089536247               190.08778375868448
1                        80                       4.5                      129.87503654192213               130.88585088636694               210.85057574743746
1                        80                       5                        135.36975893883775               140.8879624272148                231.08680210779005
1                        85                       1                        53.33998629833843                38.56761491518586                52.548610397030416
1                        85                       1.5                      71.78197451835157                55.235893722859316               77.43857364962503
1                        85                       2                        86.9356206815347                 70.59142202610613                101.5467145807524
1                        85                       2.5                      99.60858118575484                84.82813551087716                124.94125444299436
1                        85                       3                        110.34034306685885               98.0918072213086                 147.6788339690553
1                        85                       3.5                      119.51308043268573               110.49732457921098               169.80931224489905
1                        85                       4                        127.40479185897834               122.13802717351581               191.36827141702486
1                        85                       4.5                      134.23549621077183               133.09200875585378               212.39086327007976
1                        85                       5                        140.1712601501479                143.42497541172773               232.9170303512226
1                        90                       1                        53.99014863750406                38.76821387680471                52.6536047661166
1                        90                       1.5                      72.93587596505844                55.62887988392724                77.65663219154334
1                        90                       2                        88.61516536308673                71.2128967798588                 101.90774776830825
1                        90                       2.5                      101.81418904471465               85.70424601910173                125.47011019001143
1                        90                       3                        113.0601479248209                99.24187164699728                148.40202622007678
1                        90                       3.5                      122.7264319551529                111.93545850066468               170.74356955761152
1                        90                       4                        131.09429734462861               123.87470108681151               192.5314886725592
1                        90                       4.5                      138.37407718509883               135.134268163659                 213.80369968529158
1                        90                       5                        144.73520653853063               145.7778903109122                234.5858141754503
1                        95                       1                        54.59177546148911                38.9514416670249                 52.74888163510104
1                        95                       1.5                      74.01022754247433                55.98909394300726                77.8548220983298
1                        95                       2                        90.18807915982103                71.78433057793359                102.23504913577294
1                        95                       2.5                      103.8869531516255                86.51159427594708                125.95476567110705
1                        95                       3                        115.62209974440012               100.30401438007502               149.0614257211548
1                        95                       3.5                      125.76653325199011               113.26632639081984               171.59837869032498
1                        95                       4                        134.5889648049576                125.48506315703769               193.59780665491715
1                        95                       4.5                      142.30724554169592               137.03117051315695               215.09467047461317
1                        95                       5                        149.08582822656888               147.96690770973282               236.11691688254007
1                        100                      1                        55.15017322819763                39.11949845177952                52.835646629988894
1                        100                      1.5                      75.01504890086528                56.32060511338045                78.03507920047427
1                        100                      2                        91.66193663416298                72.31122400307484                102.53523615130236
1                        100                      2.5                      105.83657801830228               87.25821365740475                126.39697242187617
1                        100                      3                        118.0434808167844                101.28836936398838               149.66476231615096
1                        100                      3.5                      128.64323433243229               114.50222429080372               172.3800749547348
1                        100                      4                        137.9091668516837                126.98228965684419               194.5733740854431
1                        100                      4.5                      146.05066503558032               138.7985462328963                216.2787758038773
1                        100                      5                        153.2342187206437                150.0092899930342                237.51964691263686
1                        105                      1                        55.67050885710182                39.2742340268534                 52.91447031694915
1                        105                      1.5                      75.95437188676327                56.626792670808854               78.19919184530869
1                        105                      2                        93.04871056058246                72.7992831479082                 102.81080596546369
1                        105                      2.5                      107.67807546252769               87.95105845029282                126.8035613414479
1                        105                      3                        120.33360540512709               102.20324731540092               150.2211311028746
1                        105                      3.5                      131.37514238003342               115.65302425497124               173.1002140971463
1                        105                      4                        141.0675430603015                128.37971734017935               195.47524633979373
1                        105                      4.5                      149.61945962780402               140.44975451067728               217.37456898586944
1                        105                      5                        157.19728656745866               151.9201912677471                238.81834809775467
1                        110                      1                        56.15631507214877                39.41721937706595                52.98723457088452
1                        110                      1.5                      76.83605322736739                56.91056601386873                78.35207815317679
1                        110                      2                        94.35643527435337                73.25264186099346                103.06479922964701
1                        110                      2.5                      109.41824599723674               88.59582527861325                127.17717564718117
1                        110                      3                        122.50693339120966               103.05672518026401               150.73303188214692
1                        110                      3.5                      133.96868691120557               116.72810866730751               173.76484996601832
1                        110                      4                        144.0752077210392                129.68629529388335               196.30704778713036
1                        110                      4.5                      153.02692652468454               141.99703980494348               218.38033475073593
1                        110                      5                        160.9876262484845                153.71227925307517               240.02047733754148
1                        115                      1                        56.61101758727144                39.54978667559867                53.05418876870465
1                        115                      1.5                      77.66601992750174                57.17430325915012                78.49187715798925
1                        115                      2                        95.5906100149623                 73.67493642246842                103.29806484412643
1                        115                      2.5                      111.06658629230931               89.19786082614743                127.52411560829384
1                        115                      3                        124.57037736490722               103.85444342812784               151.20844890150858
1                        115                      3.5                      136.44136283561284               117.73456644987164               174.38291410318726
1                        115                      4                        146.94309452686804               130.9115924219047                197.0815138701182
1                        115                      4.5                      156.28323337970795               143.44837515510102               219.32377483127254
1                        115                      5                        164.6171305579963                155.39744700745732               241.13725707875307
1                        120                      1                        57.03787909877434                39.67303329964139                53.116230771494585
1                        120                      1.5                      78.44897571782082                57.420226358332286               78.62075906843504
1                        120                      2                        96.75799426904724                74.06958809934798                103.51494208901724
1                        120                      2.5                      112.6311651457878                89.76105120260091                127.8428550582444
1                        120                      3                        126.53071137798514               104.6021790034761                151.64775449827687
1                        120                      3.5                      138.79809083907998               118.67928916460545               174.95587398433418
1                        120                      4                        149.68355370986637               132.06288034311848               197.79792927060046
1                        120                      4.5                      159.39749700225758               144.81476239669803               220.1949554756049
1                        120                      5                        168.09504243443854               156.98533059214458               242.17817272015378
1                        125                      1                        57.439063085406715               39.78792799861458                53.173415808548185
1                        125                      1.5                      79.18769152920001                57.65002161597509                78.74138010955417
1                        125                      2                        97.86395994055641                74.43907458718151                103.71684447640806
1                        125                      2.5                      114.11714439780957               90.28946244580014                128.14303048165016
1                        125                      3                        128.40201124082856               105.3048230272091                152.05754565801973
1                        125                      3.5                      141.04543685659843               119.56786859802622               175.49070193998892
1                        125                      4                        152.30653963360066               133.14815548619052               198.4671168301502
1                        125                      4.5                      162.37966657286228               146.10338163204477               221.01349679573875
1                        125                      5                        171.43539461389403               158.4837221963486                243.15040954520327
1                        130                      1                        57.81689527868716                39.89528553600255                53.2268422021209
1                        130                      1.5                      79.88696029647437                57.86526196718995                78.85347723153477
1                        130                      2                        98.91415183212087                74.78586982353718                103.90450607325178
1                        130                      2.5                      115.5302294315022                90.78618702886035                128.4223438689619
1                        130                      3                        130.18244709633112               105.96609865715249               152.44036237739414
1                        130                      3.5                      143.19444950066708               120.40550161073287               175.99132899426093
1                        130                      4                        154.81523692546892               134.17174022719183               199.09243349531857
1                        130                      4.5                      165.24591170005237               147.3204180950903                221.7789177305304
1                        130                      5                        174.63837128406254               159.90112282870362               244.06273963727398
1                        135                      1                        58.17361728472855                39.995922188959824               53.27657537836242
1                        135                      1.5                      80.54892834507939                58.067474915314946               78.95866634767376
1                        135                      2                        99.91266270537342                75.11204306784168                104.08020897364253
1                        135                      2.5                      116.87961287557283               91.25401045043569                128.68263635684747
1                        135                      3                        131.88637229768807               106.58970067200528               152.7987038862362
1                        135                      3.5                      145.25087130979068               121.19686986388876               176.45801604894177
1                        135                      4                        157.22161898458512               135.13971590389178               199.68446675773026
1                        135                      4.5                      167.99327331862327               148.47330308409494               222.49785061981535
1                        135                      5                        177.71892247266499               161.245405097315                 244.91354690921904
1                        140                      1                        58.511462629118114               40.09035853965774                53.32287382529482
1                        140                      1.5                      81.17820748276394                58.25768449531451                79.05656133328168
1                        140                      2                        100.86269970114782               75.41942947902038                104.24460663194189
1                        140                      2.5                      118.16644321611363               91.69567291255623                128.92758099434724
1                        140                      3                        133.51315730364638               107.17923877221946               153.1349820732059