% Model:              Моделирование_мозга_сфера - 3.mph
% Version:            COMSOL 6.2.0.339
% Date:               Feb 24 2025, 15:59
% Table:              Table 5 - MN
% rho_brain (Ω*m)        rho_scull (Ω*m)          rho_skin (Ω*m)           V/1[A] (Ω), Point: 1     V/1[A] (Ω), Point: 1     V/1[A] (Ω), Point: 1
1                        40                       1                        66.3976868369261         37.24986196566163        64.51722356792982
1                        40                       1.5                      77.53166727214526        47.2360119198849         92.82294747736022
1                        40                       2                        84.57941717611742        54.54444448572897        119.1778638511805
1                        40                       2.5                      89.2560370889619         60.03693342435966        143.86766530700464
1                        40                       3                        92.42193322441983        64.23298101673254        167.10537368105534
1                        40                       3.5                      94.5682723218537         67.47042568437622        189.05815243079218
1                        40                       4                        95.99755412159743        69.9812961163874         209.86173977002554
1                        40                       4.5                      96.90924837164937        71.9304292012579         229.62912708050033
1                        40                       5                        97.43935556123182        73.43905070935718        248.45586715136477
1                        45                       1                        70.18358548761161        38.684185389270425       65.13863885464517
1                        45                       1.5                      82.74427385926057        49.553291849160075       94.03097172049223
1                        45                       2                        90.91716287332281        57.690822374460154       121.08423417481464
1                        45                       2.5                      96.49917117083595        63.939424233302546       146.55580065143062
1                        45                       3                        100.40506822362076       68.81610714813118        170.638407152975
1                        45                       3.5                      103.16148939004626       72.66226213423386        193.48423698173696
1                        45                       4                        105.09773462989884       75.7155581474374         215.21760435525846
1                        45                       4.5                      106.43217712800231       78.14692642718029        235.94224130811557
1                        45                       5                        107.31603434745736       80.08347447444616        255.74625431570223
1                        50                       1                        73.6622837706028         39.944371812853674       65.65708259976805
1                        50                       1.5                      87.58988227683349        51.61536469993341        95.04421373735296
1                        50                       2                        96.85892605540053        60.519730255769474       122.69074517777457
1                        50                       2.5                      103.33662114645225       67.47981571712694        148.83061567294152
1                        50                       3                        107.9844691226767        73.006599405434          173.63992817708555
1                        50                       3.5                      111.36168724739917       77.44273191889418        197.25823255515127
1                        50                       4                        113.82125763775858       81.02865203704866        219.79965794880815
1                        50                       4.5                      115.59921619625648       83.9402361399317         241.36021173734048
1                        50                       5                        116.85956894814038       86.30889125970904        262.02188922966366
1                        55                       1                        76.8759021186585         41.06259652036113        66.0970121283633
1                        55                       1.5                      92.11399215001975        53.46531498424005        95.90795680176015
1                        55                       2                        102.44894066042062       63.08050475968615        124.0656133802133
1                        55                       2.5                      109.80811810068765       70.70951640002042        150.7844290784841
1                        55                       3                        115.19464641054113       76.8556799303885         176.22641371627077
1                        55                       3.5                      119.19746295957395       81.86044010825526        200.5201321438579
1                        55                       4                        122.19104491295336       85.96586045259576        223.77138045981332
1                        55                       4.5                      124.42639285315705       89.3509164086719         246.06939353155684
1                        55                       5                        126.08094915202798       92.15012603518082        267.4903535742867
1                        60                       1                        79.85844285808905        42.063109706147756       66.47556713917771
1                        60                       1.5                      96.35365169960767        55.136568844248444       96.65412112739858
1                        60                       2                        107.72339534216093       65.41267598691903        125.25743054554681
1                        60                       2.5                      115.94825657771257       73.67082713594911        152.4833985748686
1                        60                       3                        122.06756416906339       80.40627898932487        178.4818203209744
1                        60                       3.5                      126.69689609474682       85.95753064413574        203.37213115298465
1                        60                       4                        130.22974142222841       90.56721613663746        227.25267653799222
1                        60                       4.5                      132.93257464342938       94.41638505852907        250.20661006611056
1                        60                       5                        134.99230917364088       97.6413245674986         272.3054838000354
1                        65                       1                        82.63782882747981        42.9647966883698         66.80517542776008
1                        65                       1.5                      100.34012667557667       56.655775103634205       97.30600946997745
1                        65                       2                        112.71468117709168       67.5476257422847         126.30181537703893
1                        65                       2.5                      121.78716057622708       76.39818777137896        153.9762077166331
1                        65                       3                        128.63111364608216       83.69378650909972        180.46850420148326
1                        65                       3.5                      133.88472804476862       89.7699017814231         205.89009902378115
1                        65                       4                        137.9592290400721        94.86702572558198        230.33295798590567
1                        65                       4.5                      141.13493134853914       99.16910601768386        253.8748882794651
1                        65                       5                        143.60982677727833       102.81323582513113       276.58310892761125
1                        70                       1                        85.2370313631605         43.782661151036294       67.09502996278358
1                        70                       1.5                      104.09965074166223       58.04432618071225        97.88111056279118
1                        70                       2                        117.44966053646411       69.51141958193813        127.22553679309931
1                        70                       2.5                      127.35224809328784       78.92074017239696        155.29970389272944
1                        70                       3                        134.90991378163034       86.7490874578204         182.23381019834977
1                        70                       3.5                      140.78299094060202       93.32771065220555        208.13210109754868
1                        70                       4                        145.39980741575226       98.89709503002808        233.08080493547234
1                        70                       4.5                      149.05174246736993       103.63888292679206       257.15337659794466
1                        70                       5                        151.9477781758516        107.69324039137584       280.412777067243
1                        75                       1                        87.67558956341725        44.528400432684926       67.35216982065535
1                        75                       1.5                      107.65434293382884       59.31958578180712        98.39262418741995
1                        75                       2                        121.95131119277181       71.32533222564226        128.04917006414775
1                        75                       2.5                      132.66540246963132       81.26208433405944        156.4823095490862
1                        75                       3                        140.92619640813035       89.59729431737945        183.81422113153496
1                        75                       3.5                      147.4138598765548        96.6575708272008         210.14290892965693
1                        75                       4                        152.5709075320873        102.68199983422099       235.54966363701487
1                        75                       4.5                      156.70075920418765       107.85129572004803       260.1035901253384
1                        75                       5                        160.02080966147102       112.30562407666392       283.8641635995625
1                        80                       1                        89.9698804327981         45.21207830290106        67.58199155461296
1                        80                       1.5                      111.02351662220508       60.49600296311622        98.85096458450764
1                        80                       2                        126.24032178632993       73.0070191427593         128.78873298259202
1                        80                       2.5                      137.74791330202282       83.44288184752769        157.54621016993502
1                        80                       3                        146.7003160782392        92.26073812778311        185.23850157948658
1                        80                       3.5                      153.79537487740402       99.78275656762796        211.95811624944827
1                        80                       4                        159.4893207838513        106.24542444274923       237.78167852554776
1                        80                       4.5                      164.09629979897937       111.82909543713245       262.7746856134792
1                        80                       5                        167.84344698325137       116.67417361708164       286.99365264369044
1                        85                       1                        92.13377112386651        45.84137148699424        67.78877524762257
1                        85                       1.5                      114.22402555213408       61.585275251638386       99.26428588437888
1                        85                       2                        130.33366253811187       74.57226860115162        129.45696661698503
1                        85                       2.5                      142.61696862003458       85.48032348597218        158.50917006447588
1                        85                       3                        152.24840579220094       94.75862432394283        186.52972886736072
1                        85                       3.5                      159.94440111443922       102.72309570028632       213.6060990303098
1                        85                       4                        166.17154992278859       109.60818358065103       239.81111845284477
1                        85                       4.5                      171.2548698397634        115.59322637060555       265.20648176839825
1                        85                       5                        175.42842344159845       120.81844666145048       289.8463057594231
1                        90                       1                        94.17955586502441        46.42310897808383        67.97591512231122
1                        90                       1.5                      117.26987938012955       62.59752070626392        99.6391544122347
1                        90                       2                        134.24758510107495       76.03270663779843        130.0640074923854
1                        90                       2.5                      147.28932595109453       87.38919068245684        159.38539292895652
1                        90                       3                        157.58834586733          97.10622326364525        187.70645472645106
1                        90                       3.5                      165.8755852813402        105.49485587715223       215.11001349079487
1                        90                       4                        172.63088210392016       112.78783982461113       241.6650924009457
1                        90                       4.5                      178.1882699576903        119.16183115123161       267.430934899127
1                        90                       5                        182.78839717515933       124.75666419330116       292.4586937353354
1                        95                       1                        96.11775506833678        46.96264410922044        68.14617724598943
1                        95                       1.5                      120.17368654209426       63.54125104818101        99.98084672694225
1                        95                       2                        137.99588209256368       77.39990430641143        130.61832726298854
1                        95                       2.5                      151.7783714492426        89.18225835409451        160.1866574518441
1                        95                       3                        162.73383977038907       99.31870363146516        188.7837017268323
1                        95                       3.5                      171.60393153596488       108.1147355130096        216.48848976100118
1                        95                       4                        178.88294311880395       115.79952939299096       243.36681885580032
1                        95                       4.5                      184.91100701969162       122.54966062781364       269.47484086238273
1                        95                       5                        189.93743873177215       128.5040409681373        294.86139679340613
1                        100                      1                        97.9575413462473         47.46475202903157        68.30180615764345
1                        100                      1.5                      122.94698764264282       64.42353106522006        100.29373110869581
1                        100                      2                        141.59020011315204       78.68307103901176        131.1266376498395
1                        100                      2.5                      156.09740475901424       90.87089348742012        160.92239316243405
1                        100                      3                        167.69594790429403       101.40774388377956       189.77428816904393
1                        100                      3.5                      177.1418307836778        110.59500793763007       217.75751257073605
1                        100                      4                        184.9376593199483        118.65844229502946       244.93496915161197
1                        100                      4.5                      191.43362900844573       125.77241447694264       271.3602636819896
1                        100                      5                        196.88350789612056       132.0759821898102        297.0799033239868
1                        105                      1                        99.70707827994245        47.93353882304805        68.44468221645681
1                        105                      1.5                      125.59974157057687       65.2509026139034         100.58145951835084
1                        105                      2                        145.04205596431342       79.89036990576915        131.59470503292434
1                        105                      2.5                      160.25761858947502       92.46416671063787        161.60080301840566
1                        105                      3                        172.48778845066636       103.38430920835205       190.68857029954827
1                        105                      3.5                      182.50072342735433       112.94740822242916       218.93005360154467
1                        105                      4                        190.80788398709169       121.3757628543135        246.38520688793074
1                        105                      4.5                      197.76706314557265       128.8423188138666        273.10559335281937
1                        105                      5                        203.63830547678978       135.48433448362923       299.1356197058417
1                        110                      1                        101.37347095320135       48.372283987335706       68.57636123592732
1                        110                      1.5                      128.14041525682856       66.02845307914174        100.84704623127692
1                        110                      2                        148.36090757108622       81.02878552737013        132.02732220420222
1                        110                      2.5                      164.26943266793222       93.97126002468316        162.22837116247217
1                        110                      3                        177.1197188959586        105.25852046788843       191.53539707703857
1                        110                      3.5                      187.69049758798798       115.18292493895542       220.0170977632416
1                        110                      4                        196.50240011750196       123.96300852852332       247.73109882553908
1                        110                      4.5                      203.921059052803         131.77091324853134       274.7267140605601
1                        110                      5                        210.21221944732446       138.74248814584982       301.0463739557774
1                        115                      1                        102.9630613094426        48.78385141632849        68.69812629689582
1                        115                      1.5                      130.5772699989785        66.76068552212277        101.09299974141439
1                        115                      2                        151.55578881073683       82.10459444834606        132.42850066803425
1                        115                      2.5                      168.14202997223663       95.39885170532816        162.81106208361302
1                        115                      3                        181.6005754471964        107.03834956940439       192.32226530847686
1                        115                      3.5                      192.7215768743513        117.30985771846659       221.0281871928694
1                        115                      4                        202.03198853297243       126.43085598612504       248.98382006625792
1                        115                      4.5                      209.90543821255443       134.56897786817865       276.2369551722221
1                        115                      5                        216.6120214062994        141.86070587844802       302.82819413314854
1                        120                      1                        104.48158001235771       49.171066547582186       68.81111425116767
1                        120                      1.5                      132.91700990478017       67.4520538220842         101.32150848471304
1                        120                      2                        154.63425778059843       83.12302262687109        132.80160232546027
1                        120                      2.5                      171.88400327089127       96.75356445735315        163.35352355931946
1                        120                      3                        185.94026900448364       108.73121169143133       193.05561454524343
1                        120                      3.5                      197.60258432663193       119.33723776471525       221.9712340540749
1                        120                      4                        207.40555130572125       128.78648343839149       250.15343193063717
1                        120                      4.5                      215.72856025587083       137.24494874306205       277.6476719172732
1                        120                      5                        222.848043913941         144.84835335533938       304.49361989572503
1                        125                      1                        105.93384035785584       49.53593560602151        68.91625238976648
1                        125                      1.5                      135.1661289414998        68.10605933966013        101.53446907269854
1                        125                      2                        157.60423540917066       84.08911539051164        133.1496592121461
1                        125                      2.5                      175.50252790568896       98.0417879695353         163.8600024996557
1                        125                      3                        190.14590099115688       110.3442626044858        193.7409096975704
1                        125                      3.5                      202.34059333004996       121.27350790039748       222.8531964461099
1                        125                      4                        212.63049476458838       131.03970318111675       251.24795123967675
1                        125                      4.5                      221.39776698413954       139.80830955852448       278.9690821120929
1                        125                      5                        228.9255797360338        147.71250209463037       306.05458954870664
1                        130                      1                        107.32489148110147       49.880492161009784       69.01435643971328
1                        130                      1.5                      137.33087072937633       68.72552064550118        101.73336946828977
1                        130                      2                        160.4715208130932        85.00686348221146        133.47519145378794
1                        130                      2.5                      179.00548674495377       99.26827928608361        164.33412222074475
1                        130                      3                        194.2254653677188        111.88290888205881       194.38287004752868
1                        130                      3.5                      206.9443318411287        123.1234672175043        223.67991190020263
1                        130                      4                        217.71299305857036       133.19632374074044       252.27483291347673
1                        130                      4.5                      226.92073001577043       142.26585519124188       280.2093361169476
1                        130                      5                        234.85470217961944       150.4628955525131        307.5209078359155
1                        135                      1                        108.65848384555792       50.2065838824071         69.1061343177592
1                        135                      1.5                      139.41605168976508       69.31360308092107        101.91972653219665
1                        135                      2                        163.24240008720602       85.87994523071367        133.78032820098835
1                        135                      2.5                      182.39919416917104       100.43789304287368       164.77897237191593
1                        135                      3                        198.18412497151212       113.35324919727466       194.98562655250464
1                        135                      3.5                      211.42026881772165       124.89350666499841       224.4569378522798
1                        135                      4                        222.66266614317914       135.2635318335113        253.24035071639958
1                        135                      4.5                      232.305761893561         144.62458752706647       281.3765175830396
1                        135                      5                        240.64080833200734       153.1072712357277        308.9014873469388
1                        140                      1                        109.93853707566987       50.51572428619953        69.19219729463151
1                        140                      1.5                      141.42665208178374       69.8728093767451         102.0946230827592
1                        140                      2                        165.92266243468612       86.71216851184478        134.06705192991234
1                        140                      2.5                      185.689498871259         101.5548823037231        165.19729780803993
1                        140                      3                        202.0296054585463        114.7597301579878        195.55292076844512
1                        140                      3.5                      215.77422516314863       126.59001091633601       225.18846930840795
1                        140                      4                        227.48347883377755       137.2469436955761        254.1500618673134
1                        140                      4.5                      237.55729621739414       146.89061595991927       282.47693241146635
1                        140                      5                        246.2914815260836        155.65044837168185       310.2035861522746
1                        145                      1                        111.16857761318568       50.80915684933619        69.27306546265262
1                        145                      1.5                      143.36673058495546       70.40508277110165        102.25920423080268
1                        145                      2                        168.51724014289576       87.50614864192531        134.3370079617768
1                        145                      2.5                      188.8804186342381        102.62236226204202       165.59148212597228
1                        145                      3                        205.7678903486253        116.10647450170944       196.08777532264378
1                        145                      3.5                      220.01339223751307       128.21684575221735       225.8787223864054
1                        145                      4                        232.18303874487697       139.15235169307826       255.00901166846066
1                        145                      4.5                      242.68193992693602       149.071379110623         283.5162434886363
1                        145                      5                        251.80910389786996       158.1009396925062        311.43426609303145
1                        150                      1                        112.35149039774237       51.08804401729938        69.34922190918022
1                        150                      1.5                      145.24138883221576       70.9126627892712         102.41429530154686
1                        150                      2                        171.03038391046766       88.26522608646059        134.5917430671896
1                        150                      2.5                      191.97986770244728       103.64472953018287       165.96355310126353
1                        150                      3                        209.40358400659602       117.39786345958524       196.59303732393687
1                        150                      3.5                      224.14107681228626       129.77924998690315       226.53130893222342
1                        150                      4                        236.76603648379805       140.9847548824351        255.82120911723973
1                        150                      4.5                      247.68541229732807       151.1706501368833        284.4999209595793